38
Properties=species:S:1:pos:R:3:charge:R:1:forces:R:3 energy=-29641.41612137646 pbc="F F F"
C       -6.24998012      -1.46978112       0.62703230      -0.02702075       0.00379369      -0.00054106      -0.00422432
C       -6.51283128      -1.13512172       1.94546150      -0.02901872       0.00076248      -0.00000616      -0.00211372
C       -5.51943183      -0.53127902       2.70157261      -0.02423520       0.00082399       0.00056111      -0.00059065
C       -4.28189579      -0.27194172       2.13935004      -0.03396752       0.00092248      -0.00071608      -0.00192246
C       -4.01965499      -0.61264454       0.81357437       0.06287348       0.00571424       0.00138940      -0.00056705
N       -2.72079438      -0.34976868       0.32906431      -0.08822019       0.00288758      -0.00160490       0.00078526
C       -2.28554845      -0.37360251      -0.96547953       0.19670710       0.00004649       0.00066200       0.00243388
O       -3.00119366      -0.60701475      -1.91777458      -0.28535670      -0.00225052      -0.00034048      -0.00125003
C       -0.82428137      -0.05542825      -1.15652947      -0.00391492      -0.00011283      -0.00407467       0.00089264
C       -0.44595597       0.41566551      -2.41342122      -0.01805010      -0.00279729       0.00355699       0.00137378
C        0.86194984       0.77446740      -2.65992801      -0.01767812       0.00026659      -0.00079807      -0.00204299
C        1.81576493       0.63783377      -1.65954515      -0.00793358      -0.00024706      -0.00303176       0.00205293
C        3.22843129       1.03456394      -1.95064530       0.13883781       0.00167614      -0.00405502       0.00083280
O        3.53785766       1.50005366      -3.02399862      -0.28267342      -0.00127081      -0.00158241      -0.00138989
C        4.23856678       0.82851379      -0.86820242      -0.01253121       0.00142047       0.00131883       0.00138153
C        5.56664080       1.15911205      -1.12343112      -0.02369729      -0.00273874       0.00293905       0.00067332
C        6.51945519       0.97218301      -0.13895112      -0.02569185      -0.00024626      -0.00333178      -0.00472004
C        6.15548805       0.45825491       1.10378569      -0.02564601      -0.00233038       0.00193740      -0.00306620
C        4.83712356       0.13104932       1.36330775      -0.02386750       0.00087673       0.00042941       0.00398938
C        3.87497492       0.31514354       0.37500534      -0.01229803       0.00204530      -0.00125974       0.00084659
C        2.45482271      -0.04867549       0.67526739       0.13905646       0.00297374      -0.00425650      -0.00104386
O        2.13124494      -0.47470019       1.76244842      -0.28237736       0.00026201       0.00019115       0.00345773
C        1.45426435       0.13077723      -0.41417121      -0.00237030       0.00089595      -0.00261825       0.00207052
C        0.13242770      -0.22619390      -0.16768259      -0.01387311      -0.00084095       0.00160093       0.00226700
C       -5.01564142      -1.21355101       0.04922408      -0.03786968       0.00674751       0.00116146       0.00317916
H       -7.01574301      -1.94004896       0.02635283       0.05077203      -0.00104070      -0.00212871      -0.00260003
H       -7.47945955      -1.34216246       2.37902327       0.05129239      -0.00272232       0.00171582       0.00052296
H       -5.70146991      -0.25970114       3.73265095       0.05219360      -0.00227022       0.00159281       0.00349365
H       -3.50613268       0.19746034       2.73089523       0.05322435      -0.00419663      -0.00179033       0.00049105
H       -2.08859668       0.02194275       1.01164248       0.14466079       0.00308402       0.00086243      -0.00207381
H       -1.20666240       0.48259054      -3.17535318       0.05085132      -0.00285813       0.00888658      -0.00306687
H        1.16861911       1.15974242      -3.61911343       0.05081511       0.00060549       0.00075842      -0.00590787
H        5.82318969       1.55717825      -2.09346466       0.04668967      -0.00268045      -0.00202736       0.00188358
H        7.55164699       1.22485082      -0.33575845       0.05386873      -0.00154308       0.00392338      -0.00049760
H        6.90531388       0.31389977       1.86868774       0.05391742      -0.00508827       0.00118065      -0.00112216
H        4.53068171      -0.26665244       2.31856312       0.04667561      -0.00401950      -0.00168245       0.00212538
H       -0.08572042      -0.66283448       0.79608072       0.04955391       0.00207546       0.00079774      -0.00195223
H       -4.82747259      -1.47418073      -0.97709967       0.03630176       0.00137258       0.00038002       0.00539846
