34
Properties=species:S:1:pos:R:3:charge:R:1:forces:R:3 energy=-26878.566489417244 pbc="F F F"
C        3.62054203       0.71080181       0.05208021      -0.11767612      -0.00172774      -0.00141793      -0.00000722
C        3.62054186      -0.71080239       0.05207539      -0.11767545      -0.00175689       0.00140524       0.00014212
C        2.45623800      -1.39941795      -0.01749032      -0.14107651       0.00439094      -0.00005668       0.00201023
C        1.20878609      -0.71162168      -0.06222660       0.00307900       0.00460523       0.00109708      -0.00029556
C       -0.00000724      -1.39744432      -0.05152076      -0.14127497       0.00093599       0.00504339      -0.00173158
C       -1.20877251      -0.71162622      -0.06222202       0.00308409      -0.00600064       0.00169647      -0.00031891
C       -2.45624232      -1.39941058      -0.01748825      -0.14107735      -0.00371945      -0.00065750       0.00201538
C       -3.62053663      -0.71080429       0.05208478      -0.11767756       0.00136230       0.00201678       0.00008036
C       -3.62052854       0.71081130       0.05208789      -0.11767296       0.00046411      -0.00230765       0.00010791
C       -2.45624262       1.39940935      -0.01748587      -0.14107054      -0.00344101       0.00128758       0.00206240
C       -1.20878699       0.71162418      -0.06222257       0.00307804      -0.00427654      -0.00122392      -0.00030316
C        0.00001483       1.39744606      -0.05151723      -0.14127561      -0.00161414      -0.00500560      -0.00175743
C        1.20877031       0.71162663      -0.06222821       0.00308463       0.00657168      -0.00154197      -0.00031410
C        2.45624232       1.39941982      -0.01749571      -0.14108166       0.00394200      -0.00015271       0.00208689
H        4.55748327       1.24000465       0.13578880       0.14842063      -0.00754026      -0.00469193       0.00149684
H        4.55748175      -1.24000614       0.13579316       0.14842041      -0.00754446       0.00468963       0.00146523
H        2.45429035      -2.48049423       0.01385663       0.14189072      -0.00093415       0.00050426      -0.00413661
H        0.00000080      -2.47798606       0.00579515       0.13727601      -0.00002962       0.00702054       0.00242369
H       -2.45428921      -2.48049268       0.01384841       0.14188725       0.00088497       0.00066265      -0.00413329
H       -4.55748071      -1.24000351       0.13579065       0.14842114       0.00757360       0.00470728       0.00149094
H       -4.55748135       1.24000697       0.13579849       0.14841820       0.00777483      -0.00474200       0.00147770
H       -2.45428839       2.48049760       0.01386494       0.14188592       0.00091474      -0.00088851      -0.00416749
H        0.00000209       2.47798900       0.00579883       0.13727570       0.00005873      -0.00705780       0.00242038
H        2.45429219       2.48049247       0.01385353       0.14189045      -0.00089259      -0.00036821      -0.00414964
C       -1.20783420       1.44513715       3.11365307       0.26305735      -0.00654674      -0.00037104      -0.00094633
N       -2.16378344       2.08038891       3.12263937      -0.35666201      -0.00230926      -0.00067262       0.00018136
C       -0.00000138       0.67111388       3.07914609       0.12193467       0.00025668      -0.00189844       0.00270741
C        0.00000488      -0.67111774       3.07918964       0.12192631       0.00032527       0.00212900       0.00171974
C        1.20784711      -1.44515083       3.11362081       0.26306146       0.00557935       0.00084701      -0.00053183
N        2.16377318      -2.08042674       3.12261517      -0.35666382       0.00289512       0.00034156       0.00007112
C       -1.20782887      -1.44514072       3.11363109       0.26306063      -0.00776470      -0.00067449      -0.00048827
N       -2.16377248      -2.08042288       3.12263544      -0.35666117      -0.00103593       0.00158449       0.00004435
C        1.20782289       1.44517152       3.11362412       0.26305845       0.00468439      -0.00172576      -0.00088265
N        2.16374957       2.08042858       3.12261158      -0.35666516       0.00391340       0.00041988       0.00016002
